# vtk DataFile Version 2.0
SharpEdges.vtk
ASCII

DATASET POLYDATA
POINTS 40107 float
0.2825880 0.2074930 0.3723660
0.2869750 0.2042900 0.3738360
0.2876880 0.2091020 0.3735270
0.2922770 0.2069930 0.3750110
0.2849400 0.2128760 0.3723230
0.2914920 0.2134380 0.3739790
0.2286830 0.2258060 0.3781160
0.2315870 0.2311180 0.3764420
0.2253190 0.2311810 0.3781000
0.2275210 0.2362420 0.3765360
0.2346210 0.2256160 0.3764240
0.2377180 0.2310880 0.3742930
0.2337610 0.2363090 0.3746090
0.5090970 0.1221660 0.3208120
0.5081300 0.1161220 0.3161670
0.5127300 0.1219490 0.3152970
0.5130260 0.1270540 0.3194840
0.5125070 0.1174160 0.3105970
0.5153610 0.1217240 0.3110320
0.5163630 0.1264550 0.3141790
0.2740060 0.0860839 0.3140400
0.2756030 0.0816326 0.3095480
0.2791400 0.0830859 0.3133640
0.2773290 0.0875849 0.3174420
0.2803190 0.0786458 0.3083910
0.2825990 0.0842925 0.3169800
0.2840730 0.0799303 0.3124000
0.5413410 0.1412440 0.2771290
0.5400930 0.1363940 0.2765130
0.5425890 0.1394520 0.2720930
0.5392180 0.1396070 0.2817950
0.5408490 0.1448720 0.2808010
0.5429920 0.1452730 0.2751880
0.5273920 0.2762810 0.2621930
0.5311110 0.2717750 0.2607440
0.5292990 0.2751110 0.2562070
0.5290720 0.2729350 0.2666470
0.5225230 0.2815060 0.2642950
0.5251710 0.2775160 0.2682760
0.5244600 0.2805130 0.2575110
0.1012460 0.1736540 0.4927470
0.1079210 0.1731230 0.4926310
0.1051970 0.1786280 0.4924010
0.1040260 0.1693330 0.4928710
0.0953243 0.1737770 0.4927960
0.0982230 0.1676540 0.4929680
0.0985366 0.1792830 0.4925260
0.4225110 0.1024390 0.3624190
0.4247020 0.1068500 0.3658210
0.4186470 0.1058820 0.3666150
0.4161070 0.1015140 0.3632490
0.4210260 0.1105490 0.3698310
0.4151090 0.1090920 0.3698440
0.4125890 0.1047700 0.3667880
0.0659550 0.0348842 0.4151030
0.0605785 0.0365679 0.4154530
0.0632515 0.0325710 0.4104140
0.0688537 0.0316431 0.4102040
0.0600787 0.0309151 0.4058890
0.0660621 0.0292563 0.4053920
0.0576890 0.0346085 0.4105780
0.0684270 0.0699986 0.4569170
0.0731043 0.0729321 0.4605610
0.0673364 0.0749621 0.4604750
0.0747542 0.0685512 0.4573440
0.0624616 0.0722993 0.4563670
0.4150010 0.1219980 0.3787140
0.4190840 0.1251510 0.3798300
0.4129120 0.1263870 0.3814790
0.4173610 0.1306850 0.3828370
0.4238550 0.1298540 0.3810250
0.4239880 0.1230450 0.3776380
0.4190180 0.1196140 0.3765900
0.1917200 0.1765050 0.4031970
0.1918460 0.1701130 0.4022550
0.1947980 0.1740060 0.3976240
0.1952650 0.1692770 0.3962970
0.1942300 0.1796250 0.3989030
0.1976520 0.1774620 0.3930680
0.1978650 0.1717380 0.3920670
0.2806700 0.2021480 0.3723850
0.2862850 0.1992960 0.3740810
0.2923240 0.2014730 0.3755400
0.1626980 0.1277520 0.4449790
0.1635910 0.1323160 0.4467470
0.1618900 0.1274870 0.4498810
0.1643600 0.1317770 0.4410940
0.1607620 0.1225340 0.4463250
0.1627830 0.1260650 0.4408320
0.5522840 0.1678330 0.2621370
0.5511580 0.1628670 0.2630830
0.5536370 0.1650970 0.2573530
0.5502950 0.1674190 0.2668780
0.5519920 0.1585800 0.2593380
0.5485230 0.1616890 0.2688630
0.5494810 0.1575370 0.2650210
0.0150033 0.2108190 0.3525030
0.0143170 0.2095710 0.3574240
0.0167948 0.2138630 0.3569390
0.0123631 0.2062320 0.3548690
0.0175599 0.2156580 0.3509320
0.0154455 0.2117050 0.3464650
0.0127842 0.2067750 0.3483890
0.0796956 0.0240889 0.3837940
0.0823030 0.0238043 0.3780710
0.0851990 0.0254375 0.3824300
0.0822842 0.0258231 0.3877940
0.0762039 0.0242454 0.3893830
0.0733920 0.0228121 0.3844100
0.0764708 0.0228860 0.3788960
0.2455340 0.2219460 0.3728460
0.2498340 0.2204740 0.3713540
0.2494050 0.2254830 0.3705900
0.2544170 0.2225270 0.3694120
0.2537360 0.2163310 0.3706330
0.2475390 0.2153910 0.3730230
0.5064180 0.1222280 0.3244710
0.5050280 0.1175200 0.3221290
0.5016860 0.1192460 0.3276760
0.5091420 0.1264500 0.3242630
0.5049580 0.1252980 0.3285790
0.3435780 0.0930100 0.3546780
0.3414140 0.0970783 0.3582170
0.3452170 0.1006100 0.3620310
0.3504060 0.1002800 0.3628040
0.3548940 0.0980007 0.3615390
0.3554010 0.0934210 0.3572970
0.4956530 0.0612275 0.2402780
0.4908440 0.0581957 0.2412850
0.4927880 0.0583500 0.2362180
0.4935940 0.0616546 0.2458800
0.4982190 0.0642420 0.2445080
0.5005350 0.0637515 0.2381180
0.4969150 0.0606527 0.2340550
0.2908250 0.0840399 0.3218550
0.2877580 0.0817961 0.3171620
0.2932160 0.0801212 0.3178230
0.2958600 0.0827525 0.3227740
0.2898700 0.0776043 0.3123270
0.2954900 0.0763217 0.3128980
0.2982480 0.0789887 0.3182880
0.0788170 0.0228741 0.3734820
0.0739121 0.0225679 0.3747780
0.0745204 0.0229087 0.3688990
0.0708910 0.0222774 0.3788130
0.0694638 0.0227024 0.3733940
0.1807750 0.1757550 0.4270740
0.1792290 0.1782470 0.4328180
0.1783100 0.1723150 0.4316620
0.1818310 0.1822500 0.4271200
0.1777680 0.1802800 0.4386310
0.1798670 0.1841460 0.4344020
0.1769270 0.1747710 0.4369010
0.5148510 0.0960580 0.2756720
0.5128640 0.0916575 0.2719630
0.5120430 0.0968750 0.2815930
0.5085440 0.0882130 0.2728810
0.5045850 0.0870241 0.2763490
0.5083740 0.0940645 0.2828580
0.0777464 0.0441058 0.4297550
0.0757077 0.0471902 0.4342870
0.0722562 0.0448655 0.4308970
0.0825039 0.0470115 0.4333800
0.0784413 0.0501474 0.4382310
0.0722681 0.0505394 0.4382310
0.0696096 0.0473902 0.4337800
0.4495260 0.1443870 0.3753790
0.4555350 0.1453510 0.3729170
0.4523410 0.1499650 0.3755830
0.4529800 0.1398260 0.3722800
0.4454470 0.1428260 0.3770210
0.4467560 0.1489340 0.3779670
0.4472330 0.1389370 0.3748790
0.3686410 0.0441942 0.0185701
0.3743380 0.0460361 0.0217059
0.3681770 0.0444252 0.0248656
0.3737270 0.0461068 0.0157567
0.3731320 0.0464436 0.0282007
0.3785660 0.0477189 0.0257600
0.3796830 0.0476356 0.0184997
0.3931630 0.0505126 0.0179531
0.3892430 0.0497842 0.0226431
0.3863530 0.0492004 0.0180252
0.3844360 0.0490519 0.0249045
0.0723983 0.0420618 0.4267670
0.0786975 0.0409050 0.4245470
0.0833960 0.0432972 0.4272740
0.2358450 0.2706610 0.5732610
0.2303490 0.2671000 0.5700490
0.2352170 0.2637720 0.5732160
0.2395660 0.2671140 0.5760070
0.2407720 0.2733760 0.5761550
0.5004610 0.0791877 0.2706100
0.0942155 0.0664688 0.4554660
0.0976337 0.0706285 0.4590730
0.0922062 0.0692138 0.4587110
0.0886178 0.0664275 0.4562560
0.1352940 0.0743567 0.3852420
0.1398340 0.0778816 0.3870670
0.1344830 0.0774856 0.3914050
0.1399070 0.0804936 0.3917210
0.1315870 0.0795558 0.3974440
0.1284100 0.0747922 0.3935780
0.1373080 0.0819883 0.3963840
0.3016260 0.1916450 0.3786010
0.3073830 0.1903190 0.3801470
0.3056000 0.1960270 0.3794010
0.3115890 0.1949030 0.3810120
0.3103460 0.1844390 0.3810840
0.3139880 0.1889140 0.3819340
0.3043170 0.1858340 0.3794770
0.2634700 0.2024840 0.3701870
0.2649720 0.2088720 0.3696650
0.2579170 0.2066860 0.3706220
0.2584470 0.2123110 0.3699540
0.2573340 0.2008180 0.3711640
0.2526000 0.2047100 0.3722330
0.2532750 0.2103320 0.3715130
0.4265660 0.1115900 0.3691970
0.4319970 0.1133270 0.3685510
0.4288090 0.1160000 0.3718510
0.4298770 0.1083490 0.3652590
0.4235350 0.1164930 0.3736040
0.3364300 0.1224880 0.3742520
0.3308860 0.1229040 0.3728880
0.3325620 0.1182800 0.3708060
0.3315840 0.1275640 0.3754800
0.3382740 0.1162900 0.3711120
0.3425120 0.1194860 0.3741390
0.3419960 0.1251520 0.3772830
0.3370710 0.1290770 0.3778920
0.1067990 0.1033570 0.4818910
0.1109730 0.1048730 0.4825290
0.1070540 0.1086020 0.4840020
0.1118800 0.1004630 0.4805920
0.1159750 0.1035310 0.4818980
0.1135710 0.1098260 0.4843610
0.2080560 0.2490800 0.5545000
0.2059110 0.2555200 0.5531100
0.2027920 0.2508880 0.5509920
0.2014350 0.2567790 0.5489470
0.2049200 0.2451410 0.5517090
0.1981650 0.2520310 0.5471710
0.1998170 0.2457490 0.5484950
0.3013930 0.0818044 0.3236400
0.3039590 0.0780803 0.3188600
0.3071380 0.0806889 0.3239040
0.3006000 0.0755568 0.3135280
0.3075240 0.0742645 0.3137570
0.3100770 0.0769172 0.3191160
0.1793870 0.1974300 0.4976120
0.5337620 0.1813480 0.3042000
0.5363540 0.1852520 0.3004320
0.5339610 0.1879120 0.3042920
0.5372300 0.1806490 0.2985250
0.5303330 0.1852250 0.3094580
0.5324650 0.1763030 0.3058350
0.5301870 0.1792560 0.3093940
0.5353630 0.1757350 0.3011680
0.2187690 0.0650069 0.0288237
0.2131110 0.0646881 0.0322026
0.2140480 0.0634025 0.0259655
0.2083510 0.0621046 0.0291480
0.2090520 0.0609901 0.0235246
0.2145260 0.0624007 0.0193706
0.2192840 0.0634184 0.0222858
0.0235963 0.2012540 0.4149350
0.0245687 0.1961680 0.4192790
0.0269871 0.2019500 0.4211470
0.0267972 0.2068100 0.4184060
0.0270593 0.1979680 0.4241890
0.0298204 0.2071620 0.4243270
0.0293930 0.2031180 0.4259760
0.2349530 0.2848850 0.5615260
0.2312290 0.2846550 0.5565130
0.2356940 0.2883500 0.5563110
0.2390870 0.2887880 0.5609300
0.2387550 0.2852610 0.5659100
0.2441370 0.2280750 0.3722530
0.2400330 0.2241120 0.3747260
0.2369230 0.2204880 0.3764210
0.2414000 0.2181150 0.3750960
0.4514120 0.1069070 0.3537700
0.4625610 0.1085100 0.3516830
0.4603680 0.1120830 0.3552340
0.4541600 0.1118250 0.3568220
0.1152020 0.2813990 0.5037330
0.1154490 0.2752830 0.4997790
0.1184840 0.2806530 0.4993670
0.1182180 0.2770400 0.4975370
0.1220990 0.2860110 0.4973880
0.1188800 0.2866910 0.5023320
0.1208450 0.2797670 0.4953720
0.0754990 0.3276320 0.5327400
0.0719105 0.3264290 0.5278750
0.0758590 0.3215590 0.5300710
0.0723585 0.3200280 0.5251320
0.5002290 0.1237150 0.3327020
0.4975820 0.1189760 0.3318220
0.4957170 0.1220750 0.3358540
0.5028540 0.1290610 0.3335310
0.4984150 0.1275420 0.3371140
0.4381310 0.0799215 0.3159830
0.4317090 0.0798309 0.3174230
0.4340180 0.0781924 0.3131630
0.4345690 0.0820898 0.3215910
0.4287840 0.0780816 0.3137320
0.4260790 0.0794306 0.3182810
0.4278720 0.0811794 0.3220070
0.3310690 0.0719664 0.3200710
0.3265920 0.0750469 0.3232760
0.3253050 0.0718778 0.3173720
0.3299120 0.0689912 0.3141380
0.3189230 0.0721141 0.3148510
0.3245180 0.0689724 0.3116770
0.3211060 0.0749843 0.3205720
0.3355150 0.0691389 0.3166170
0.3364520 0.0719106 0.3220910
0.3319920 0.0749606 0.3256580
0.4118040 0.0768112 0.3238170
0.4177190 0.0794297 0.3249410
0.4132390 0.0790707 0.3280180
0.4076660 0.0771925 0.3280470
0.4167390 0.0773054 0.3196120
0.4054390 0.0742849 0.3230920
0.4098460 0.0744927 0.3188550
0.4979520 0.2988400 0.2727580
0.4920860 0.3015740 0.2754040
0.4969640 0.2976150 0.2779660
0.5029990 0.2949490 0.2742220
[...]
CELL_DATA 648
SCALARS  Feature int 1
LOOKUP_TABLE default
0
0
1
2
3
4
5
6
7
8
9
10
11
12
13
14
15
16
8
17
18
19
20
16
21
22
23
18
21
24
25
26
27
28
29
11
30
31
32
30
33
34
35
36
37
38
39
40
41
42
5
18
6
43
44
45
46
47
25
48
49
50
51
52
53
47
18
8
54
16
55
4
56
57
58
59
60
44
61
0
62
63
63
64
39
65
66
67
11
68
69
70
26
71
8
3
3
72
16
5
73
6
41
74
75
76
77
78
79
22
80
81
72
5
31
82
8
8
11
4
83
84
85
86
87
88
89
55
66
75
90
31
91
92
93
67
22
94
95
96
71
97
98
79
99
11
100
22
101
102
0
103
4
101
45
104
105
106
107
31
108
109
77
110
111
6
42
6
77
112
113
18
60
114
115
116
113
78
117
111
60
113
11
47
118
114
119
11
116
10
120
121
122
123
124
125
126
127
123
128
61
129
130
131
132
133
134
135
136
137
138
139
140
45
45
141
142
5
143
144
145
146
147
148
60
149
150
151
151
10
152
153
45
45
122
154
154
154
143
121
121
155
156
157
158
158
158
159
160
161
20
5
5
162
163
164
75
75
165
166
167
168
93
169
170
171
4
172
173
174
175
176
177
178
179
113
180
181
152
25
25
182
61
61
79
135
183
105
79
184
185
186
26
26
79
187
114
102
188
189
190
98
191
76
76
58
107
26
26
192
193
55
184
38
194
58
195
196
197
198
199
199
200
201
28
28
196
202
2
2
203
80
204
116
44
44
205
206
207
208
209
210
211
116
11
212
213
214
215
4
216
217
218
219
220
221
222
123
223
152
219
99
99
224
225
5
5
152
152
226
227
228
229
230
230
4
4
75
75
231
232
184
108
16
16
16
233
233
31
31
31
234
123
235
236
235
237
238
239
240
210
241
242
41
243
243
193
244
245
246
247
248
116
116
249
250
251
252
253
254
255
143
143
120
120
256
257
258
259
260
22
261
261
262
263
64
263
264
265
266
118
267
4
268
269
270
225
271
165
272
31
66
273
274
274
275
2
2
2
46
168
276
277
278
92
92
113
225
111
230
98
18
279
280
281
282
283
284
285
169
169
286
287
288
277
289
290
291
292
293
210
210
294
295
295
296
10
297
298
299
300
301
302
219
123
303
168
304
305
60
210
64
263
306
307
308
148
309
69
310
311
312
276
107
313
216
314
3
315
316
317
18
22
77
318
224
319
10
10
320
67
321
316
322
323
116
16
3
3
324
324
194
194
3
128
325
159
233
233
47
326
327
176
176
240
21
328
329
330
331
332
292
333
334
335
335
108
336
337
275
148
148
143
143
338
38
39
339
39
340
341
294
341
341
62
62
122
122
342
343
342
342
344
104
104
82
82
345
346
346
347
345
316
348
348
349
350
224
351
320
320
159
159
352
352
294
294
294
353
353
320
320
350
260
260
354
354
115
355
356
356
357
345
345
358
358
359
359
